<?xml version="1.0" encoding="UTF-8"?>

<!-- generated on Mon Apr  5 14:54:22 2021 by Eclipse SUMO sumo Version 1.8.0
<configuration xmlns:xsi="http://www.w3.org/2001/XMLSchema-instance" xsi:noNamespaceSchemaLocation="http://sumo.dlr.de/xsd/sumoConfiguration.xsd">

    <input>
        <net-file value="map.net.xml"/>
        <route-files value="map.rou.xml"/>
    </input>

    <output>
        <tripinfo-output value="out.xml"/>
    </output>

    <time>
        <begin value="0"/>
        <end value="10000"/>
    </time>

    <report>
        <verbose value="true"/>
        <log value="logfile.txt"/>
        <duration-log.statistics value="true"/>
    </report>

    <emissions>
        <device.emissions.probability value="1"/>
    </emissions>

    <traci_server>
        <remote-port value="58991"/>
    </traci_server>

</configuration>
-->

<tripinfos xmlns:xsi="http://www.w3.org/2001/XMLSchema-instance" xsi:noNamespaceSchemaLocation="http://sumo.dlr.de/xsd/tripinfo_file.xsd">
    <tripinfo id="carrinheiro" depart="0.00" departLane="60000000001_0" departPos="5.10" departSpeed="0.00" departDelay="0.00" arrival="14869.00" arrivalLane="40000000010_0" arrivalPos="0.20" arrivalSpeed="0.95" duration="14869.00" routeLength="11166.11" waitingTime="93.00" waitingCount="6" stopTime="0.00" timeLoss="3702.92" rerouteNo="0" devices="tripinfo_carrinheiro emissions_carrinheiro" vType="DEFAULT_VEHTYPE@carrinheiro" speedFactor="1.06" vaporized="">
        <emissions CO_abs="1132844.818083" CO2_abs="19453296.674373" HC_abs="5610.370592" PMx_abs="453.672463" NOx_abs="8745.263714" fuel_abs="8362.677006" electricity_abs="0"/>
    </tripinfo>
</tripinfos>
