<?xml version="1.0" encoding="UTF-8"?>

<!-- generated on Sun Mar 21 17:03:34 2021 by Eclipse SUMO sumo Version 1.8.0
<configuration xmlns:xsi="http://www.w3.org/2001/XMLSchema-instance" xsi:noNamespaceSchemaLocation="http://sumo.dlr.de/xsd/sumoConfiguration.xsd">

    <input>
        <net-file value="map.net.xml"/>
        <route-files value="map.rou.xml"/>
    </input>

    <output>
        <tripinfo-output value="out.xml"/>
    </output>

    <time>
        <begin value="0"/>
        <end value="10000"/>
    </time>

    <report>
        <verbose value="true"/>
        <log value="logfile.txt"/>
        <duration-log.statistics value="true"/>
    </report>

    <emissions>
        <device.emissions.probability value="1"/>
    </emissions>

    <traci_server>
        <remote-port value="33205"/>
    </traci_server>

</configuration>
-->

<tripinfos xmlns:xsi="http://www.w3.org/2001/XMLSchema-instance" xsi:noNamespaceSchemaLocation="http://sumo.dlr.de/xsd/tripinfo_file.xsd">
    <tripinfo id="carrinheiro" depart="0.00" departLane="20000000001_0" departPos="5.10" departSpeed="0.00" departDelay="0.00" arrival="14445.00" arrivalLane="10000000001_0" arrivalPos="9.34" arrivalSpeed="0.94" duration="14445.00" routeLength="10881.70" waitingTime="0.00" waitingCount="0" stopTime="0.00" timeLoss="3562.74" rerouteNo="0" devices="tripinfo_carrinheiro emissions_carrinheiro" vType="DEFAULT_VEHTYPE@carrinheiro" speedFactor="1.06" vaporized="">
        <emissions CO_abs="1086570.958161" CO2_abs="18667370.210432" HC_abs="5381.382617" PMx_abs="435.177506" NOx_abs="8391.125929" fuel_abs="8024.818942" electricity_abs="0"/>
    </tripinfo>
</tripinfos>
