<?xml version="1.0" encoding="UTF-8"?>

<!-- generated on Sun Apr  4 00:13:41 2021 by Eclipse SUMO sumo Version 1.8.0
<configuration xmlns:xsi="http://www.w3.org/2001/XMLSchema-instance" xsi:noNamespaceSchemaLocation="http://sumo.dlr.de/xsd/sumoConfiguration.xsd">

    <input>
        <net-file value="map.net.xml"/>
        <route-files value="map.rou.xml"/>
    </input>

    <output>
        <tripinfo-output value="out.xml"/>
    </output>

    <time>
        <begin value="0"/>
        <end value="10000"/>
    </time>

    <report>
        <verbose value="true"/>
        <log value="logfile.txt"/>
        <duration-log.statistics value="true"/>
    </report>

    <emissions>
        <device.emissions.probability value="1"/>
    </emissions>

    <traci_server>
        <remote-port value="44063"/>
    </traci_server>

</configuration>
-->

<tripinfos xmlns:xsi="http://www.w3.org/2001/XMLSchema-instance" xsi:noNamespaceSchemaLocation="http://sumo.dlr.de/xsd/tripinfo_file.xsd">
    <tripinfo id="carrinheiro" depart="0.00" departLane="60000000001_0" departPos="5.10" departSpeed="0.00" departDelay="0.00" arrival="43677.00" arrivalLane="40000000010_0" arrivalPos="597.79" arrivalSpeed="0.91" duration="43677.00" routeLength="32720.00" waitingTime="139.00" waitingCount="6" stopTime="0.00" timeLoss="10957.08" rerouteNo="0" devices="tripinfo_carrinheiro emissions_carrinheiro" vType="DEFAULT_VEHTYPE@carrinheiro" speedFactor="1.06" vaporized="">
        <emissions CO_abs="3274837.290841" CO2_abs="56244515.422214" HC_abs="16218.746429" PMx_abs="1311.797237" NOx_abs="25285.603529" fuel_abs="24178.662967" electricity_abs="0"/>
    </tripinfo>
</tripinfos>
